Composition,hydrogen_weight_percent,heat_of_formation,temperature,pressure,avg_atomic_mass
V49.8Fe10.2Ti12.667Cr12.6Co12.67,3.501272697,38.7,25,40,52.22409743
V49.8Fe10.2Ti13.33Cr13.3Co13.3,3.733529256,38.28,25,40,52.23588946
VTiAlCr,1.1,42.7,311,5.3,44.44653465
VTiAlTaNb,1.25,56.1,301,0.8,79.92885972
VTiZrNb,1.5,67.6,311,0.05,70.73472
VZrHfNb,1,,,,103.39047
Zr.5Nb.5N.34,1,,,,72.25930448
Zr.7Nb.3N.33,1.1,,,,72.44430451
Zr.924Nb.024Ti.052,2.2,,800,0.23,89.00981312
Zr.927Nb.024V.049,2.7,,800,0.2,89.29053462
Zr.935Nb.024Ni.041,2.6,,800,0.19,89.93062252
Zr.94V.06,2.1,,,,88.80705
Zr.96Mo.04,2,,,,91.41264
Zr.96Sn.04,1.9,,,,92.32344
Zr.975Nb.025,2.2,219,800,0.2,91.2660595
Zr.977Ni.023,2.4,,,,90.4757962
Zr.97Cr.03,2.1,,,,90.047163
Zr0.2Ti0.2Ni0.2Cr0.2Mn0.2,1.66,,50,,60.943709
Zr0.45Hf0.55,0.9,142,657,0.007,139.2203
Zr0.82Nb0.18,2,,,,91.5268284
Zr0.88Nb0.12,1.9,,800,0.21,91.4258856
Zr0.975Nb0.025,2.2,219,800,0.2,91.2660595
ZrN.28,1.2,,,,74.33271563
ZrTiVAl,1.4,,200,,54.25350965
ZrTiVCrFeNi,1.81,,,,59.42783333
ZrTiVFe,1.67,,200,,61.469375
ZrTiVNiCrFe,1.6,,25,,59.42783333